 Output coordinates in angstroms (scale by  1.889725989 to convert to a.u.)

  No.       Tag          Charge          X              Y              Z
 ---- ---------------- ---------- -------------- -------------- --------------
    1 O                    8.0000     1.22350280     2.03404310    -0.05603946
    2 N                    7.0000    -0.70663389     0.82679949     0.00009829
    3 N                    7.0000     1.40228212    -0.24203724    -0.00179520
    4 N                    7.0000     1.54395281    -2.54807904     0.03465533
    5 C                    6.0000    -1.32449237    -0.38861612     0.01761353
    6 C                    6.0000    -0.62461472    -1.54415480     0.02675240
    7 C                    6.0000     0.68018028     0.91147252    -0.02108444
    8 C                    6.0000    -1.53267306     2.04225634    -0.01273048
    9 C                    6.0000     0.79680082    -1.45119851     0.01973598
   10 H                    1.0000    -2.40630517    -0.36318795     0.02477461
   11 H                    1.0000    -1.11890898    -2.50435432     0.04203281
   12 H                    1.0000    -2.20652428     2.02730297     0.84356372
   13 H                    1.0000    -2.11074700     2.08518887    -0.93620493
   14 H                    1.0000    -0.88599664     2.90996950     0.05008921
   15 H                    1.0000     1.08528482    -3.44649052     0.04498176
   16 O                    8.0000     4.18383086    -2.33034072    -0.00724022
   17 N                    7.0000     6.99661380     2.23606192    -0.00616621
   18 N                    7.0000     4.06516663    -0.04810799    -0.00789984
   19 N                    7.0000     8.06723084     0.26659503     0.00162576
   20 N                    7.0000     6.16351031    -1.24835735     0.00046460
   21 N                    7.0000     3.95594676     2.28847114    -0.01063648
   22 C                    6.0000     6.08214025     1.18705487    -0.00476191
   23 C                    6.0000     4.67803456     1.17176372    -0.00813423
   24 C                    6.0000     6.73072513    -0.04058457    -0.00035062
   25 C                    6.0000     8.16339297     1.63996061    -0.00233783
   26 C                    6.0000     4.81518068    -1.23326861    -0.00463734
   27 H                    1.0000     8.83713136    -0.38975177     0.00320966
   28 H                    1.0000     9.12131576     2.13579204    -0.00224787
   29 H                    1.0000     4.43747347     3.17497448    -0.01517345
   30 H                    1.0000     2.93005069     2.25303341    -0.02461698
   31 H                    1.0000     2.96245919    -0.12319120    -0.00770092
   32 H                    1.0000     2.57830102    -2.48236279     0.02108545

         Total DFT energy =     -977.255904998368

                       DFT Final Molecular Orbital Analysis
                       ------------------------------------

 Vector    1  Occ=2.000000D+00  E=-1.911362D+01

 Vector  461  Occ=0.000000D+00  E= 3.589699D+00

 Vector  462  Occ=0.000000D+00  E= 3.598001D+00

 Vector  463  Occ=0.000000D+00  E= 3.621780D+00

 Vector  464  Occ=0.000000D+00  E= 3.632312D+00

 Vector  465  Occ=0.000000D+00  E= 3.651552D+00

 Vector  466  Occ=0.000000D+00  E= 3.699591D+00

 Vector  467  Occ=0.000000D+00  E= 3.720633D+00

 Vector  468  Occ=0.000000D+00  E= 3.736470D+00

 Vector  469  Occ=0.000000D+00  E= 3.774484D+00

 Vector  470  Occ=0.000000D+00  E= 3.779142D+00

 Vector  471  Occ=0.000000D+00  E= 3.793194D+00

 Vector  472  Occ=0.000000D+00  E= 3.800348D+00

 Vector  473  Occ=0.000000D+00  E= 3.830232D+00

 Vector  474  Occ=0.000000D+00  E= 3.848917D+00

 Vector  475  Occ=0.000000D+00  E= 3.857068D+00

 Vector  476  Occ=0.000000D+00  E= 3.864808D+00

 Vector  477  Occ=0.000000D+00  E= 3.877265D+00

 Vector  478  Occ=0.000000D+00  E= 3.878515D+00

 Vector  479  Occ=0.000000D+00  E= 3.921932D+00

 Vector  480  Occ=0.000000D+00  E= 3.930801D+00

 Vector  481  Occ=0.000000D+00  E= 3.939126D+00

 Vector  482  Occ=0.000000D+00  E= 3.956838D+00

 Vector  483  Occ=0.000000D+00  E= 4.053345D+00

 Vector  484  Occ=0.000000D+00  E= 4.084260D+00

 Vector  485  Occ=0.000000D+00  E= 4.167899D+00

 Vector  486  Occ=0.000000D+00  E= 4.176093D+00

 Vector  487  Occ=0.000000D+00  E= 4.249524D+00

 Vector  488  Occ=0.000000D+00  E= 4.268352D+00

 Vector  489  Occ=0.000000D+00  E= 4.363263D+00

 Vector  490  Occ=0.000000D+00  E= 4.442584D+00

 Vector  491  Occ=0.000000D+00  E= 4.459004D+00

 Vector  492  Occ=0.000000D+00  E= 4.701180D+00

 Vector  493  Occ=0.000000D+00  E= 4.759944D+00

 Vector  494  Occ=0.000000D+00  E= 4.786259D+00

 Vector  495  Occ=0.000000D+00  E= 4.792724D+00

 Vector  496  Occ=0.000000D+00  E= 4.825675D+00

 Vector  497  Occ=0.000000D+00  E= 4.851280D+00

 Vector  498  Occ=0.000000D+00  E= 4.888623D+00

 Vector  499  Occ=0.000000D+00  E= 4.944281D+00

 Vector  500  Occ=0.000000D+00  E= 4.959184D+00

 Vector  501  Occ=0.000000D+00  E= 4.964860D+00

 Vector  502  Occ=0.000000D+00  E= 5.010348D+00

 Vector  503  Occ=0.000000D+00  E= 5.029811D+00

 Vector  504  Occ=0.000000D+00  E= 5.042550D+00

 Vector  505  Occ=0.000000D+00  E= 5.062689D+00

 Vector  506  Occ=0.000000D+00  E= 5.149908D+00

 Vector  507  Occ=0.000000D+00  E= 5.159293D+00

 Vector  508  Occ=0.000000D+00  E= 5.234293D+00

 Vector  509  Occ=0.000000D+00  E= 5.277693D+00

 Vector  510  Occ=0.000000D+00  E= 5.293808D+00

 Vector  511  Occ=0.000000D+00  E= 5.301308D+00

 Vector  512  Occ=0.000000D+00  E= 5.327515D+00

 Vector  513  Occ=0.000000D+00  E= 5.332620D+00

 Vector  514  Occ=0.000000D+00  E= 5.397758D+00

 Vector  515  Occ=0.000000D+00  E= 5.432184D+00

 Vector  516  Occ=0.000000D+00  E= 5.457280D+00

 Vector  517  Occ=0.000000D+00  E= 5.786476D+00

 Vector  518  Occ=0.000000D+00  E= 5.795593D+00

 Vector  519  Occ=0.000000D+00  E= 6.752412D+00

 Vector  520  Occ=0.000000D+00  E= 6.760486D+00

 Vector  521  Occ=0.000000D+00  E= 2.658650D+01

 Vector  522  Occ=0.000000D+00  E= 2.660178D+01

 Vector  523  Occ=0.000000D+00  E= 2.661404D+01

 Vector  524  Occ=0.000000D+00  E= 2.663374D+01

 Vector  525  Occ=0.000000D+00  E= 2.665286D+01

 Vector  526  Occ=0.000000D+00  E= 2.666917D+01

 Vector  527  Occ=0.000000D+00  E= 2.669153D+01

 Vector  528  Occ=0.000000D+00  E= 2.673794D+01

 Vector  529  Occ=0.000000D+00  E= 2.675586D+01

 Vector  530  Occ=0.000000D+00  E= 2.678806D+01

 Vector  531  Occ=0.000000D+00  E= 3.963192D+01

 Vector  532  Occ=0.000000D+00  E= 3.965309D+01

 Vector  533  Occ=0.000000D+00  E= 3.966216D+01

 Vector  534  Occ=0.000000D+00  E= 3.969169D+01

 Vector  535  Occ=0.000000D+00  E= 3.969481D+01

 Vector  536  Occ=0.000000D+00  E= 3.974386D+01

 Vector  537  Occ=0.000000D+00  E= 3.980549D+01

 Vector  538  Occ=0.000000D+00  E= 3.981849D+01

 Vector  539  Occ=0.000000D+00  E= 5.556473D+01

 Vector  540  Occ=0.000000D+00  E= 5.557240D+01

     Multipole analysis of the density
     ---------------------------------

     L   x y z        total         alpha         beta         nuclear
     -   - - -        -----         -----         ----         -------
     0   0 0 0     -0.000000    -72.000000    -72.000000    144.000000

     1   1 0 0     -3.469872   -434.186196   -434.186196    864.902521
     1   0 1 0      0.709795    -25.528752    -25.528752     51.767298
     1   0 0 1      0.064910      0.343911      0.343911     -0.622911

     2   2 0 0    -68.538698  -5205.599621  -5205.599621  10342.660543
     2   1 1 0     15.353396   -287.301433   -287.301433    589.956263
     2   1 0 1      0.112106      3.646758      3.646758     -7.181410
     2   0 2 0    -92.200777   -709.152950   -709.152950   1326.105123
     2   0 1 1     -0.018976      5.338381      5.338381    -10.695738

 Total times  cpu:      711.9s     wall:      713.3s
